42
tsb_conformer17.log	Energy: -706579.0444893
C         -0.98449        0.65922        1.28913
C         -1.66042        1.15180       -0.00001
C         -0.98453        0.65926       -1.28917
C          0.54343        0.71907        1.15444
C          0.54339        0.71912       -1.15454
C          1.03603        2.12752        0.77401
C          1.03597        2.12757       -0.77406
H         -1.29950        1.29391        2.13087
H         -1.29958        1.29395       -2.13089
H          2.04194        2.30972        1.17422
H         -1.30202       -0.36409        1.52310
H         -1.61532        2.25023        0.00001
H         -1.30206       -0.36406       -1.52315
H          1.01690        0.33728        2.07123
H          1.01684        0.33737       -2.07136
H          0.38273        2.90164        1.19990
H          2.04185        2.30984       -1.17433
H          0.38262        2.90169       -1.19985
N          0.99011       -0.09436       -0.00007
C          2.95215       -0.21877       -0.00010
H          2.98906       -0.76428       -0.93832
H          3.16313        0.84246       -0.00021
H          2.98896       -0.76414        0.93821
O         -3.07076        0.91346        0.00002
C         -3.55785       -0.33221        0.00000
O         -2.87075       -1.32678       -0.00002
C         -5.04840       -0.35642        0.00002
C         -5.81245        0.81624        0.00008
C         -5.68183       -1.60411       -0.00003
C         -7.20227        0.73671        0.00010
H         -5.31138        1.78461        0.00012
C         -7.07103       -1.67896       -0.00002
H         -5.06647       -2.50547       -0.00008
C         -7.83116       -0.50874        0.00005
H         -7.79907        1.65096        0.00015
H         -7.56435       -2.65289       -0.00006
H         -8.92182       -0.56766        0.00006
C          0.57686       -1.49697       -0.00010
H          0.99480       -1.98845        0.88960
H         -0.51374       -1.63247       -0.00001
H          0.99463       -1.98836       -0.88993
I          5.65024       -0.44862        0.00004
