42
tsb_conformer1.log	Energy: -706579.0453615
C         -0.98445        0.65902        1.28909
C         -1.66043        1.15178        0.00006
C         -0.98459        0.65943       -1.28921
C          0.54347        0.71890        1.15437
C          0.54333        0.71930       -1.15462
C          1.03604        2.12742        0.77414
C          1.03587        2.12771       -0.77394
H         -1.29944        1.29358        2.13093
H         -1.29969        1.29425       -2.13082
H          2.04198        2.30955        1.17428
H         -1.30197       -0.36433        1.52293
H         -1.61535        2.25021        0.00022
H         -1.30212       -0.36385       -1.52334
H          1.01696        0.33698        2.07109
H          1.01677        0.33771       -2.07150
H          0.38278        2.90147        1.20020
H          2.04171        2.31012       -1.17425
H          0.38245        2.90187       -1.19956
N          0.99011       -0.09435       -0.00029
C          2.95215       -0.21877       -0.00019
H          3.16318        0.84245       -0.00087
H          2.98901       -0.76364        0.93840
H          2.98906       -0.76479       -0.93812
O         -3.07078        0.91344        0.00010
C         -3.55787       -0.33223       -0.00003
O         -2.87077       -1.32680       -0.00019
C         -5.04842       -0.35644        0.00004
C         -5.68186       -1.60412        0.00002
C         -5.81245        0.81623        0.00011
C         -7.07106       -1.67895        0.00009
H         -5.06651       -2.50549       -0.00004
C         -7.20228        0.73672        0.00017
H         -5.31137        1.78460        0.00012
C         -7.83118       -0.50872        0.00016
H         -7.56439       -2.65288        0.00009
H         -7.79907        1.65097        0.00022
H         -8.92184       -0.56764        0.00021
C          0.57689       -1.49696       -0.00049
H          0.99453       -1.98821       -0.89046
H          0.99496       -1.98859        0.88907
H         -0.51371       -1.63248       -0.00025
I          5.65028       -0.44861        0.00011
