42
tsb_conformer11.log	Energy: -706579.0440437
C         -0.98457        0.65918        1.28919
C         -1.66040        1.15168       -0.00002
C         -0.98445        0.65903       -1.28911
C          0.54336        0.71908        1.15458
C          0.54347        0.71883       -1.15440
C          1.03587        2.12753        0.77398
C          1.03615        2.12728       -0.77409
H         -1.29967        1.29389        2.13088
H         -1.29943        1.29369       -2.13088
H          2.04165        2.30999        1.17439
H         -1.30208       -0.36414        1.52318
H         -1.61527        2.25012       -0.00008
H         -1.30202       -0.36428       -1.52306
H          1.01682        0.33744        2.07144
H          1.01693        0.33693       -2.07115
H          0.38236        2.90164        1.19957
H          2.04215        2.30929       -1.17416
H          0.38301        2.90142       -1.20019
N          0.99012       -0.09450        0.00020
C          2.95217       -0.21888        0.00014
H          2.98912       -0.76332       -0.93871
H          3.16309        0.84236        0.00126
H          2.98902       -0.76533        0.93781
O         -3.07076        0.91341       -0.00007
C         -3.55790       -0.33224       -0.00002
O         -2.87084       -1.32683        0.00005
C         -5.04845       -0.35638       -0.00005
C         -5.81243        0.81633       -0.00008
C         -5.68196       -1.60403       -0.00002
C         -7.20226        0.73688       -0.00010
H         -5.31130        1.78467       -0.00010
C         -7.07116       -1.67880       -0.00004
H         -5.06665       -2.50543        0.00001
C         -7.83122       -0.50853       -0.00008
H         -7.79901        1.65116       -0.00013
H         -7.56453       -2.65270       -0.00003
H         -8.92189       -0.56739       -0.00010
C          0.57688       -1.49711        0.00034
H         -0.51372       -1.63262        0.00009
H          0.99498       -1.98870       -0.88923
H          0.99450       -1.98839        0.89030
I          5.65029       -0.44850       -0.00007
