42
tsb_conformer18.log	Energy: -706579.0446963
C          0.98450        0.65916       -1.28918
C          1.66037        1.15166        0.00001
C          0.98449        0.65893        1.28911
C         -0.54343        0.71892       -1.15453
C         -0.54343        0.71873        1.15446
C         -1.03606        2.12733       -0.77396
C         -1.03607        2.12721        0.77411
H          1.29951        1.29393       -2.13085
H          1.29950        1.29354        2.13090
H         -2.04196        2.30958       -1.17418
H          1.30210       -0.36412       -1.52324
H          1.61519        2.25009        0.00011
H          1.30207       -0.36440        1.52297
H         -1.01686        0.33721       -2.07136
H         -1.01687        0.33687        2.07123
H         -0.38275        2.90150       -1.19973
H         -2.04197        2.30940        1.17435
H         -0.38277        2.90131        1.20002
N         -0.99011       -0.09465       -0.00010
C         -2.95214       -0.21896       -0.00006
H         -3.16297        0.84229        0.00013
H         -2.98915       -0.76423       -0.93842
H         -2.98901       -0.76458        0.93811
O          3.07073        0.91342        0.00000
C          3.55790       -0.33221       -0.00008
O          2.87087       -1.32683       -0.00018
C          5.04846       -0.35632       -0.00001
C          5.81242        0.81640        0.00001
C          5.68198       -1.60396        0.00003
C          7.20224        0.73697        0.00008
H          5.31127        1.78474       -0.00002
C          7.07118       -1.67870        0.00010
H          5.06669       -2.50537        0.00000
C          7.83123       -0.50842        0.00012
H          7.79897        1.65127        0.00010
H          7.56457       -2.65260        0.00013
H          8.92189       -0.56726        0.00018
C         -0.57686       -1.49725       -0.00022
H         -0.99475       -1.98863       -0.89000
H          0.51374       -1.63277       -0.00026
H         -0.99469       -1.98876        0.88953
I         -5.65027       -0.44842        0.00005
