42
tsb_conformer4.log	Energy: -706579.0449222
C          0.98447        0.65913       -1.28910
C          1.66041        1.15176        0.00002
C          0.98454        0.65924        1.28920
C         -0.54345        0.71891       -1.15441
C         -0.54338        0.71914        1.15457
C         -1.03613        2.12737       -0.77409
C         -1.03590        2.12759        0.77399
H          1.29945        1.29381       -2.13085
H          1.29963        1.29394        2.13091
H         -2.04212        2.30940       -1.17419
H          1.30205       -0.36417       -1.52306
H          1.61530        2.25019       -0.00003
H          1.30205       -0.36408        1.52318
H         -1.01688        0.33703       -2.07117
H         -1.01685        0.33748        2.07141
H         -0.38297        2.90150       -1.20014
H         -2.04172        2.31000        1.17434
H         -0.38244        2.90170        1.19962
N         -0.99011       -0.09443        0.00017
C         -2.95214       -0.21885        0.00011
H         -2.98909       -0.76304       -0.93888
H         -2.98897       -0.76553        0.93764
H         -3.16310        0.84238        0.00153
O          3.07076        0.91344       -0.00002
C          3.55787       -0.33221        0.00002
O          2.87078       -1.32679        0.00009
C          5.04842       -0.35640       -0.00003
C          5.81244        0.81628       -0.00009
C          5.68188       -1.60407       -0.00001
C          7.20226        0.73678       -0.00014
H          5.31134        1.78464       -0.00010
C          7.07108       -1.67889       -0.00006
H          5.06654       -2.50545        0.00003
C          7.83118       -0.50865       -0.00012
H          7.79904        1.65105       -0.00018
H          7.56442       -2.65281       -0.00005
H          8.92184       -0.56754       -0.00016
C         -0.57684       -1.49703        0.00030
H         -0.99446       -1.98833        0.89026
H         -0.99492       -1.98862       -0.88927
H          0.51376       -1.63251        0.00008
I         -5.65026       -0.44856       -0.00007
