42
tsb_conformer12.log	Energy: -706579.0446712
C         -0.98459        0.65925        1.28925
C         -1.66039        1.15172        0.00001
C         -0.98441        0.65902       -1.28905
C          0.54334        0.71905        1.15468
C          0.54351        0.71880       -1.15431
C          1.03596        2.12746        0.77408
C          1.03617        2.12726       -0.77400
H         -1.29967        1.29402        2.13090
H         -1.29936        1.29364       -2.13085
H          2.04178        2.30977        1.17442
H         -1.30217       -0.36404        1.52330
H         -1.61525        2.25015       -0.00008
H         -1.30198       -0.36430       -1.52295
H          1.01674        0.33739        2.07155
H          1.01699        0.33690       -2.07104
H          0.38258        2.90164        1.19972
H          2.04216        2.30934       -1.17414
H          0.38298        2.90138       -1.20003
N          0.99009       -0.09455        0.00031
C          2.95213       -0.21890        0.00027
H          2.98891       -0.76377       -0.93834
H          3.16301        0.84234        0.00101
H          2.98918       -0.76493        0.93818
O         -3.07075        0.91344       -0.00006
C         -3.55788       -0.33220        0.00002
O         -2.87082       -1.32680        0.00016
C         -5.04844       -0.35636       -0.00007
C         -5.68192       -1.60401        0.00007
C         -5.81243        0.81634       -0.00029
C         -7.07112       -1.67880       -0.00000
H         -5.06660       -2.50541        0.00024
C         -7.20226        0.73687       -0.00036
H         -5.31132        1.78469       -0.00040
C         -7.83121       -0.50855       -0.00022
H         -7.56448       -2.65271        0.00011
H         -7.79902        1.65115       -0.00054
H         -8.92187       -0.56742       -0.00028
C          0.57683       -1.49715        0.00043
H          0.99485       -1.98872       -0.88918
H          0.99450       -1.98847        0.89035
H         -0.51377       -1.63265        0.00025
I          5.65027       -0.44849       -0.00016
