42
tsb_conformer6.log	Energy: -706579.0459639
C          0.98457        0.65918       -1.28903
C          1.66044        1.15180        0.00012
C          0.98448        0.65931        1.28926
C         -0.54336        0.71908       -1.15444
C         -0.54344        0.71915        1.15455
C         -1.03593        2.12755       -0.77405
C         -1.03603        2.12759        0.77402
H          1.29966        1.29381       -2.13079
H          1.29948        1.29403        2.13098
H         -2.04180        2.30980       -1.17436
H          1.30208       -0.36416       -1.52292
H          1.61534        2.25024        0.00006
H          1.30201       -0.36400        1.52330
H         -1.01679        0.33730       -2.07125
H         -1.01693        0.33743        2.07135
H         -0.38257        2.90165       -1.19988
H         -2.04196        2.30977        1.17419
H         -0.38275        2.90174        1.19987
N         -0.99011       -0.09434        0.00006
C         -2.95213       -0.21875        0.00002
H         -2.98893       -0.76483       -0.93788
H         -2.98911       -0.76354        0.93866
H         -3.16317        0.84248       -0.00075
O          3.07078        0.91346        0.00015
C          3.55786       -0.33221        0.00018
O          2.87075       -1.32677        0.00029
C          5.04842       -0.35644        0.00004
C          5.81247        0.81622       -0.00014
C          5.68184       -1.60412        0.00006
C          7.20229        0.73668       -0.00029
H          5.31140        1.78460       -0.00016
C          7.07103       -1.67898       -0.00009
H          5.06647       -2.50549        0.00020
C          7.83118       -0.50876       -0.00027
H          7.79910        1.65093       -0.00044
H          7.56435       -2.65292       -0.00007
H          8.92184       -0.56769       -0.00039
C         -0.57690       -1.49695        0.00013
H          0.51370       -1.63250        0.00020
H         -0.99483       -1.98835        0.88988
H         -0.99470       -1.98841       -0.88965
I         -5.65027       -0.44863       -0.00008
