37
1a.log	Energy: -494666.2319555
C         -1.90678       -0.68191        1.55840
C         -1.01692       -1.32206        0.49482
C         -1.63941       -1.26789       -0.90263
C         -2.66961        0.55357        1.02539
C         -2.38674        0.06088       -1.17123
C         -4.10677        0.20813        0.53567
C         -3.91986       -0.07978       -0.96997
H         -2.61663       -1.43557        1.93203
H         -2.32977       -2.11961       -1.00494
H         -4.78154        1.06239        0.69244
H         -1.26252       -0.40467        2.40440
H         -0.79817       -2.36829        0.75170
H         -0.84423       -1.43653       -1.64146
H         -2.68393        1.33595        1.79732
H         -2.13756        0.42974       -2.17627
H         -4.53825       -0.64004        1.08633
H         -4.45458        0.66257       -1.58082
H         -4.29269       -1.06803       -1.27439
N         -1.97446        1.04103       -0.16545
C         -2.25593        2.41577       -0.51018
H         -1.90926        3.07658        0.29837
H         -1.70098        2.68817       -1.42031
H         -3.32944        2.64066       -0.69035
O          0.23022       -0.61484        0.51423
C          1.31463       -1.22811        0.04662
O          1.33803       -2.37732       -0.32290
C          2.49887       -0.31631        0.03253
C          3.75427       -0.85875       -0.25655
C          2.36646        1.05418        0.28129
C          4.87691       -0.03632       -0.28503
H          3.82830       -1.92938       -0.45680
C          3.49136        1.87441        0.24586
H          1.37500        1.46047        0.48776
C          4.74554        1.33007       -0.03321
H          5.85864       -0.46043       -0.50614
H          3.39027        2.94517        0.43569
H          5.62650        1.97569       -0.05764
