37
1b.log	Energy: -494670.4903358
C          1.53581       -0.16233       -1.28144
C          0.95527       -0.77004       -0.00093
C          1.53428       -0.16308        1.28058
C          3.06252        0.01443       -1.14205
C          3.06119        0.01376        1.14297
C          3.77389       -1.30230       -0.77424
C          3.77302       -1.30273        0.77520
H          1.29825       -0.81358       -2.13744
H          1.29590       -0.81486        2.13594
H          4.80126       -1.29198       -1.16193
H          1.07564        0.81570       -1.47504
H          1.18661       -1.84527       -0.00100
H          1.07400        0.81487        1.47431
H          3.45993        0.45574       -2.06972
H          3.45750        0.45445        2.07140
H          3.26973       -2.17993       -1.20634
H          4.79997       -1.29250        1.16401
H          3.26850       -2.18067        1.20628
N          3.40351        0.85181        0.00093
O         -0.48340       -0.78613       -0.00205
C         -1.18987        0.34408       -0.00101
O         -0.71444        1.45453       -0.00062
C         -2.66346        0.08440       -0.00044
C         -3.52124        1.18914       -0.00021
C         -3.19417       -1.21006        0.00000
C         -4.90017        1.00189        0.00044
H         -3.08389        2.18917       -0.00054
C         -4.57460       -1.39409        0.00067
H         -2.51871       -2.06592       -0.00019
C         -5.42742       -0.29006        0.00089
H         -5.56771        1.86603        0.00062
H         -4.98817       -2.40476        0.00102
H         -6.50981       -0.43757        0.00142
C          2.93366        2.21630        0.00103
H          1.83151        2.33420        0.00069
H          3.32740        2.73549        0.88877
H          3.32797        2.73578       -0.88629
