41
2a.log	Energy: -519634.9985298
C         -1.38337        0.69635        1.23455
C         -0.59335       -0.29969        0.38090
C         -1.19074       -0.48609       -1.02373
C         -2.88914        0.49115        1.09074
C         -2.71110       -0.59134       -0.98402
C         -3.29939       -0.96624        1.36351
C         -3.18326       -1.68043       -0.00582
H         -1.12861        0.55967        2.29522
H         -0.79836       -1.41627       -1.45719
H         -4.31712       -1.02809        1.77002
H         -1.08903        1.72622        0.98937
H         -0.58291       -1.28285        0.87647
H         -0.85563        0.32325       -1.68788
H         -3.44326        1.22403        1.69324
H         -3.12508       -0.69871       -1.99606
H         -2.63893       -1.40474        2.12221
H         -4.14057       -2.11655       -0.31913
H         -2.45953       -2.50514        0.01018
N         -3.30344        0.68107       -0.37045
C         -4.79275        0.68740       -0.50017
H         -5.18733        1.56789        0.02074
H         -5.05213        0.74024       -1.56420
H         -5.22643       -0.21591       -0.06588
O          0.73517        0.17218        0.30828
C          1.68675       -0.75548        0.02083
O          1.39695       -1.90415       -0.19412
C          3.05648       -0.19169        0.00294
C          4.11130       -1.05884       -0.30823
C          3.31483        1.15552        0.28646
C          5.41667       -0.58007       -0.33664
H          3.88998       -2.10557       -0.52390
C          4.62282        1.62873        0.25671
H          2.49179        1.82723        0.53182
C          5.67185        0.76252       -0.05458
H          6.23944       -1.25514       -0.57854
H          4.82779        2.67762        0.47871
H          6.69729        1.13732       -0.07641
C         -2.81961        1.94682       -0.99038
H         -3.27134        2.79086       -0.45491
H         -1.73349        2.02854       -0.94229
H         -3.13726        1.96256       -2.04012
