1
I.log	Energy: -186978.8279747
I          0.00000        0.00000        0.00000
