5
MeI.log	Energy: -211911.3350244
C         -1.81402        0.00007       -0.00006
H         -2.15745        1.03721       -0.07667
H         -2.15633       -0.45228        0.93690
H         -2.15743       -0.58551       -0.85953
I          0.32746        0.00000       -0.00001
