42
tsud.log	Energy: -706574.7423973
C          0.94507        1.11151       -0.67194
C          1.63563        0.58094        0.59081
C          0.93415       -0.66793        1.14710
C         -0.57954        1.14257       -0.50634
C         -0.58600       -0.44062        1.16891
C         -0.99581        1.92796        0.75059
C         -0.98014        0.86792        1.88007
H          1.30770        2.12697       -0.88942
H          1.28551       -0.88188        2.16577
H         -1.99566        2.36271        0.62280
H          1.23533        0.48888       -1.53149
H          1.58246        1.36322        1.36440
H          1.17666       -1.55867        0.55879
H         -1.05567        1.51963       -1.42367
H         -1.08529       -1.32271        1.59616
H         -0.30802        2.76359        0.94006
H         -1.96518        0.77401        2.35531
H         -0.26881        1.10914        2.68183
N         -1.09467       -0.21445       -0.20641
C         -3.04833       -0.18262       -0.20260
H         -3.12249        0.21683       -1.20995
H         -3.15171       -1.25185       -0.04345
H         -3.18934        0.48235        0.63924
O          3.03222        0.50292        0.28970
C          3.83011       -0.56663        0.40077
O          3.48609       -1.65516        0.78322
C          5.22986       -0.24462       -0.01632
C          6.17768       -1.27185        0.04666
C          5.60861        1.02754       -0.45933
C          7.49467       -1.02913       -0.33101
H          5.86077       -2.25618        0.39573
C          6.92736        1.26669       -0.83662
H          4.86525        1.82369       -0.50483
C          7.86985        0.24010       -0.77290
H          8.23264       -1.83220       -0.28080
H          7.22246        2.25958       -1.18201
H          8.90371        0.43072       -1.06930
C         -0.80387       -1.25300       -1.18940
H         -1.29436       -0.99347       -2.13789
H          0.26843       -1.39565       -1.37837
H         -1.21938       -2.20644       -0.83548
I         -5.76839       -0.15766       -0.26345
