42
tsa_conformer7.log	Energy: -706580.4082995
C         -0.05175        1.72756       -1.08566
C          0.63523        1.82440        0.28316
C         -0.32907        1.64128        1.45599
C         -1.40623        2.43553       -1.08414
C         -1.65294        2.36462        1.20532
C         -1.27557        3.91349       -0.64473
C         -1.43688        3.86506        0.89409
H          0.59625        2.18620       -1.84600
H          0.12861        2.03804        2.37408
H         -2.05453        4.53354       -1.10913
H         -0.17013        0.67160       -1.36560
H          1.12864        2.80568        0.35566
H         -0.50263        0.57123        1.63263
H         -1.88918        2.32137       -2.06467
H         -2.33504        2.19728        2.05068
H         -0.30974        4.33231       -0.95888
H         -2.29572        4.46430        1.22608
H         -0.55773        4.25439        1.42575
N         -2.27659        1.83623       -0.03707
C         -3.67782        2.23634       -0.17481
H         -4.06967        1.86218       -1.13020
H         -4.26480        1.78769        0.63799
H         -3.81550        3.32778       -0.14426
O          1.63632        0.82221        0.40153
C          2.83839        1.07354       -0.14394
O          3.11078        2.12275       -0.67179
C          3.76931       -0.08143       -0.01600
C          5.09154        0.09270       -0.43960
C          3.35253       -1.31667        0.49376
C          5.99507       -0.96089       -0.34671
H          5.39163        1.06280       -0.83990
C          4.25941       -2.36966        0.57956
H          2.31806       -1.45156        0.81141
C          5.57868       -2.19187        0.16261
H          7.02746       -0.82450       -0.67489
H          3.93260       -3.33509        0.97056
H          6.28723       -3.02033        0.23186
C         -2.38494       -0.12693       -0.08076
H         -2.87828       -0.15975       -1.04777
H         -1.32615       -0.33362       -0.02656
H         -2.98127       -0.18324        0.82497
I         -2.55152       -2.83555       -0.09927
