42
tsa_conformer12.log	Energy: -706580.4077285
C          0.32913        1.64076        1.45586
C         -0.63541        1.82421        0.28330
C          0.05131        1.72786       -1.08567
C          1.65285        2.36437        1.20518
C          1.40573        2.43596       -1.08420
C          1.43653        3.86488        0.89446
C          1.27500        3.91377       -0.64433
H         -0.12842        2.03709        2.37420
H         -0.59687        2.18666       -1.84576
H          2.29532        4.46414        1.22652
H          0.50285        0.57066        1.63201
H         -1.12887        2.80545        0.35621
H          0.16975        0.67199       -1.36594
H          2.33512        2.19687        2.05038
H          1.88851        2.32214       -2.06487
H          0.55739        4.25389        1.42636
H          2.05385        4.53403       -1.10864
H          0.30909        4.33261       -0.95822
N          2.27636        1.83644       -0.03748
C          3.67751        2.23678       -0.17533
H          4.06915        1.86322       -1.13105
H          3.81510        3.32821       -0.14416
H          4.26475        1.78768        0.63705
O         -1.63642        0.82193        0.40153
C         -2.83861        1.07336       -0.14366
O         -3.11116        2.12272       -0.67111
C         -3.76942       -0.08172       -0.01594
C         -5.09172        0.09243       -0.43933
C         -3.35249       -1.31708        0.49341
C         -5.99515       -0.96125       -0.34665
H         -5.39193        1.06263       -0.83931
C         -4.25927       -2.37017        0.57900
H         -2.31797       -1.45198        0.81091
C         -5.57861       -2.19236        0.16226
H         -7.02759       -0.82485       -0.67468
H         -3.93235       -3.33568        0.96968
H         -6.28709       -3.02089        0.23134
C          2.38500       -0.12671       -0.08118
H          1.32619       -0.33354       -0.02804
H          2.87922       -0.15960       -1.04774
H          2.98052       -0.18280        0.82509
I          2.55200       -2.83530       -0.09916
