42
tsa_conformer2.log	Energy: -706580.4068688
C         -0.05174        1.72782       -1.08569
C          0.63508        1.82441        0.28323
C         -0.32932        1.64106        1.45592
C         -1.40629        2.43566       -1.08418
C         -1.65320        2.36436        1.20524
C         -1.27581        3.91356       -0.64453
C         -1.43721        3.86487        0.89427
H          0.59631        2.18668       -1.84585
H          0.12825        2.03769        2.37413
H         -2.05482        4.53360       -1.10888
H         -0.17001        0.67191       -1.36588
H          1.12848        2.80569        0.35595
H         -0.50283        0.57097        1.63236
H         -1.88913        2.32161       -2.06478
H         -2.33538        2.19685        2.05050
H         -0.31001        4.33255       -0.95856
H         -2.29610        4.46401        1.22631
H         -0.55811        4.25414        1.42604
N         -2.27668        1.83611       -0.03729
C         -3.67794        2.23609       -0.17510
H         -3.81577        3.32750       -0.14419
H         -4.06960        1.86219       -1.13067
H         -4.26499        1.78707        0.63746
O          1.63618        0.82222        0.40152
C          2.83830        1.07369       -0.14379
O          3.11071        2.12301       -0.67142
C          3.76924       -0.08128       -0.01598
C          5.09152        0.09298       -0.43937
C          3.35245       -1.31664        0.49349
C          5.99507       -0.96059       -0.34659
H          5.39162        1.06318       -0.83944
C          4.25935       -2.36961        0.57918
H          2.31794       -1.45163        0.81099
C          5.57866       -2.19169        0.16243
H          7.02750       -0.82410       -0.67461
H          3.93253       -3.33513        0.96994
H          6.28724       -3.02013        0.23160
C         -2.38481       -0.12705       -0.08092
H         -2.98069       -0.18331        0.82510
H         -2.87861       -0.16003       -1.04769
H         -1.32596       -0.33359       -0.02729
I         -2.55125       -2.83562       -0.09921
