42
tsa_conformer5.log	Energy: -706580.4075653
C          0.32878        1.64106        1.45594
C         -0.63557        1.82418        0.28317
C          0.05139        1.72754       -1.08566
C          1.65251        2.36466        1.20532
C          1.40575        2.43576       -1.08411
C          1.43619        3.86510        0.89426
C          1.27484        3.91365       -0.64456
H         -0.12893        2.03760        2.37411
H         -0.59670        2.18611       -1.84596
H          2.29493        4.46445        1.22628
H          0.50250        0.57101        1.63237
H         -1.12907        2.80542        0.35577
H          0.16998        0.67161       -1.36565
H          2.33467        2.19735        2.05065
H          1.88870        2.32177       -2.06467
H          0.55697        4.25420        1.42596
H          2.05369        4.53388       -1.10891
H          0.30894        4.33234       -0.95866
N          2.27624        1.83650       -0.03713
C          3.67739        2.23688       -0.17486
H          3.81489        3.32834       -0.14420
H          4.26448        1.78824        0.63787
H          4.06928        1.86288       -1.13031
O         -1.63656        0.82190        0.40150
C         -2.83866        1.07314       -0.14396
O         -3.11114        2.12234       -0.67179
C         -3.76950       -0.08189       -0.01602
C         -3.35266       -1.31708        0.49383
C         -5.09172        0.09212       -0.43969
C         -4.25947       -2.37013        0.57964
H         -2.31819       -1.45188        0.81155
C         -5.99518       -0.96153       -0.34680
H         -5.39186        1.06218       -0.84006
C         -5.57873       -2.19246        0.16261
H         -3.93261       -3.33551        0.97071
H         -7.02756       -0.82523       -0.67504
H         -6.28723       -3.02096        0.23186
C          2.38497       -0.12663       -0.08081
H          2.98123       -0.18273        0.82497
H          1.32621       -0.33357       -0.02676
H          2.87838       -0.15938       -1.04779
I          2.55233       -2.83516       -0.09927
