42
tsa_conformer17.log	Energy: -706580.4068311
C         -0.05185        1.72792       -1.08570
C          0.63496        1.82450        0.28322
C         -0.32945        1.64104        1.45591
C         -1.40644        2.43569       -1.08418
C         -1.65337        2.36429        1.20524
C         -1.27604        3.91358       -0.64446
C         -1.43746        3.86482        0.89434
H          0.59618        2.18683       -1.84585
H          0.12809        2.03766        2.37413
H         -2.05508        4.53359       -1.10879
H         -0.17007        0.67201       -1.36591
H          1.12830        2.80580        0.35600
H         -0.50290        0.57093        1.63229
H         -1.88926        2.32165       -2.06479
H         -2.33555        2.19670        2.05049
H         -0.31027        4.33263       -0.95847
H         -2.29638        4.46389        1.22639
H         -0.55838        4.25412        1.42613
N         -2.27682        1.83605       -0.03732
C         -3.67810        2.23597       -0.17511
H         -4.06971        1.86219       -1.13075
H         -4.26514        1.78681        0.63737
H         -3.81599        3.32737       -0.14406
O          1.63609        0.82235        0.40149
C          2.83822        1.07385       -0.14380
O          3.11062        2.12318       -0.67141
C          3.76917       -0.08110       -0.01598
C          3.35240       -1.31645        0.49355
C          5.09144        0.09315       -0.43942
C          4.25931       -2.36941        0.57926
H          2.31790       -1.45144        0.81109
C          5.99500       -0.96041       -0.34663
H          5.39152        1.06334       -0.83954
C          5.57862       -2.19150        0.16246
H          3.93251       -3.33491        0.97008
H          7.02741       -0.82392       -0.67469
H          6.28720       -3.01993        0.23164
C         -2.38486       -0.12715       -0.08101
H         -1.32598       -0.33363       -0.02771
H         -2.98045       -0.18352        0.82520
H         -2.87897       -0.16010       -1.04762
I         -2.55095       -2.83580       -0.09921
