42
tsa_conformer10.log	Energy: -706580.4127611
C         -0.05146        1.72780       -1.08571
C          0.63542        1.82428        0.28316
C         -0.32898        1.64098        1.45587
C         -1.40589        2.43588       -1.08415
C         -1.65276        2.36449        1.20528
C         -1.27517        3.91373       -0.64441
C         -1.43653        3.86497        0.89440
H          0.59663        2.18651       -1.84593
H          0.12867        2.03748        2.37409
H         -2.05410        4.53391       -1.10869
H         -0.16995        0.67190       -1.36586
H          1.12896        2.80549        0.35590
H         -0.50260        0.57091        1.63219
H         -1.88878        2.32197       -2.06474
H         -2.33493        2.19704        2.05056
H         -0.30932        4.33258       -0.95845
H         -2.29529        4.46425        1.22650
H         -0.55733        4.25406        1.42616
N         -2.27638        1.83641       -0.03726
C         -3.67758        2.23665       -0.17498
H         -3.81523        3.32807       -0.14379
H         -4.06928        1.86307       -1.13067
H         -4.26470        1.78752        0.63745
O          1.63640        0.82197        0.40141
C          2.83854        1.07333       -0.14390
O          3.11103        2.12261       -0.67155
C          3.76940       -0.08170       -0.01603
C          3.35254       -1.31696        0.49363
C          5.09166        0.09240       -0.43953
C          4.25936       -2.36999        0.57941
H          2.31804       -1.45182        0.81121
C          5.99514       -0.96123       -0.34667
H          5.39182        1.06252       -0.83974
C          5.57866       -2.19223        0.16255
H          3.93249       -3.33543        0.97034
H          7.02755       -0.82487       -0.67477
H          6.28718       -3.02072        0.23180
C         -2.38493       -0.12669       -0.08096
H         -2.87880       -0.15958       -1.04770
H         -1.32617       -0.33369       -0.02740
H         -2.98079       -0.18289        0.82508
I         -2.55195       -2.83536       -0.09923
