42
tsa_conformer19.log	Energy: -706580.4064044
C          0.32937        1.64073        1.45584
C         -0.63518        1.82430        0.28330
C          0.05151        1.72798       -1.08570
C          1.65316        2.36420        1.20517
C          1.40601        2.43591       -1.08421
C          1.43702        3.86474        0.89451
C          1.27546        3.91372       -0.64427
H         -0.12812        2.03709        2.37420
H         -0.59664        2.18692       -1.84573
H          2.29589        4.46389        1.22658
H          0.50297        0.57060        1.63197
H         -1.12858        2.80556        0.35627
H          0.16981        0.67212       -1.36606
H          2.33544        2.19658        2.05033
H          1.88875        2.32208       -2.06489
H          0.55793        4.25384        1.42644
H          2.05438        4.53390       -1.10858
H          0.30960        4.33269       -0.95812
N          2.27657        1.83624       -0.03753
C          3.67778        2.23638       -0.17540
H          3.81552        3.32780       -0.14416
H          4.26497        1.78716        0.63693
H          4.06934        1.86283       -1.13115
O         -1.63624        0.82207        0.40151
C         -2.83843        1.07360       -0.14363
O         -3.11093        2.12301       -0.67103
C         -3.76931       -0.08142       -0.01594
C         -5.09162        0.09284       -0.43924
C         -3.35243       -1.31685        0.49331
C         -5.99512       -0.96079       -0.34658
H         -5.39178        1.06309       -0.83914
C         -4.25928       -2.36988        0.57889
H         -2.31790       -1.45185        0.81074
C         -5.57863       -2.19195        0.16223
H         -7.02757       -0.82429       -0.67453
H         -3.93240       -3.33544        0.96949
H         -6.28716       -3.02044        0.23131
C          2.38492       -0.12692       -0.08124
H          2.98034       -0.18310        0.82510
H          1.32606       -0.33356       -0.02818
H          2.87922       -0.15984       -1.04775
I          2.55151       -2.83550       -0.09914
