42
tsa_conformer6.log	Energy: -706580.4063982
C         -0.05165        1.72775       -1.08567
C          0.63523        1.82434        0.28321
C         -0.32915        1.64102        1.45593
C         -1.40613        2.43572       -1.08414
C         -1.65299        2.36443        1.20529
C         -1.27550        3.91361       -0.64448
C         -1.43690        3.86492        0.89433
H          0.59641        2.18652       -1.84588
H          0.12847        2.03760        2.37413
H         -2.05444        4.53372       -1.10882
H         -0.17002        0.67184       -1.36580
H          1.12864        2.80562        0.35591
H         -0.50272        0.57094        1.63232
H         -1.88900        2.32172       -2.06473
H         -2.33515        2.19695        2.05057
H         -0.30966        4.33249       -0.95850
H         -2.29575        4.46411        1.22637
H         -0.55777        4.25413        1.42610
N         -2.27656        1.83624       -0.03723
C         -3.67778        2.23637       -0.17500
H         -4.26483        1.78749        0.63763
H         -3.81548        3.32780       -0.14419
H         -4.06953        1.86244       -1.13053
O          1.63630        0.82213        0.40151
C          2.83841        1.07352       -0.14389
O          3.11082        2.12277       -0.67164
C          3.76932       -0.08146       -0.01600
C          5.09156        0.09269       -0.43958
C          3.35255       -1.31672        0.49371
C          5.99509       -0.96090       -0.34673
H          5.39165        1.06281       -0.83984
C          4.25943       -2.36971        0.57948
H          2.31807       -1.45163        0.81135
C          5.57870       -2.19190        0.16255
H          7.02748       -0.82449       -0.67489
H          3.93262       -3.33515        0.97044
H          6.28726       -3.02035        0.23177
C         -2.38489       -0.12693       -0.08098
H         -2.98098       -0.18315        0.82491
H         -2.87847       -0.15978       -1.04787
H         -1.32608       -0.33360       -0.02713
I         -2.55158       -2.83550       -0.09924
