42
tsa_conformer8.log	Energy: -706580.4068374
C          0.32922        1.64090        1.45590
C         -0.63525        1.82433        0.28327
C          0.05153        1.72784       -1.08566
C          1.65303        2.36435        1.20523
C          1.40602        2.43580       -1.08417
C          1.43690        3.86486        0.89439
C          1.27542        3.91366       -0.64440
H         -0.12833        2.03738        2.37417
H         -0.59657        2.18667       -1.84579
H          2.29575        4.46404        1.22644
H          0.50281        0.57080        1.63218
H         -1.12864        2.80561        0.35610
H          0.16987        0.67195       -1.36587
H          2.33525        2.19682        2.05046
H          1.88882        2.32186       -2.06480
H          0.55779        4.25402        1.42623
H          2.05435        4.53380       -1.10874
H          0.30957        4.33257       -0.95835
N          2.27652        1.83625       -0.03737
C          3.67773        2.23641       -0.17519
H          3.81544        3.32783       -0.14413
H          4.26487        1.78735        0.63727
H          4.06938        1.86271       -1.13085
O         -1.63632        0.82212        0.40154
C         -2.83845        1.07353       -0.14377
O         -3.11092        2.12284       -0.67139
C         -3.76933       -0.08148       -0.01597
C         -3.35249       -1.31680        0.49357
C         -5.09160        0.09268       -0.43945
C         -4.25933       -2.36983        0.57924
H         -2.31799       -1.45171        0.81114
C         -5.99509       -0.96095       -0.34669
H         -5.39173        1.06284       -0.83957
C         -5.57863       -2.19201        0.16240
H         -3.93247       -3.33531        0.97007
H         -7.02750       -0.82453       -0.67479
H         -6.28716       -3.02049        0.23155
C          2.38491       -0.12690       -0.08109
H          1.32608       -0.33360       -0.02771
H          2.87894       -0.15974       -1.04775
H          2.98059       -0.18308        0.82507
I          2.55161       -2.83547       -0.09920
