42
tsa_conformer9.log	Energy: -706580.4079983
C         -0.05185        1.72774       -1.08568
C          0.63507        1.82446        0.28317
C         -0.32925        1.64115        1.45595
C         -1.40641        2.43558       -1.08411
C         -1.65316        2.36441        1.20533
C         -1.27591        3.91350       -0.64455
C         -1.43725        3.86490        0.89427
H          0.59613        2.18656       -1.84593
H          0.12839        2.03784        2.37409
H         -2.05493        4.53352       -1.10890
H         -0.17012        0.67181       -1.36577
H          1.12842        2.80577        0.35581
H         -0.50273        0.57107        1.63245
H         -1.88932        2.32147       -2.06467
H         -2.33527        2.19692        2.05066
H         -0.31012        4.33246       -0.95864
H         -2.29614        4.46402        1.22630
H         -0.55813        4.25425        1.42597
N         -2.27673        1.83607       -0.03713
C         -3.67800        2.23604       -0.17485
H         -3.81582        3.32746       -0.14410
H         -4.06976        1.86201       -1.13033
H         -4.26496        1.78716        0.63784
O          1.63620        0.82231        0.40149
C          2.83827        1.07370       -0.14399
O          3.11061        2.12291       -0.67185
C          3.76924       -0.08123       -0.01603
C          3.35254       -1.31645        0.49384
C          5.09145        0.09293       -0.43968
C          4.25946       -2.36939        0.57969
H          2.31808       -1.45137        0.81155
C          5.99503       -0.96061       -0.34675
H          5.39148        1.06302       -0.84006
C          5.57871       -2.19157        0.16268
H          3.93272       -3.33480        0.97078
H          7.02740       -0.82420       -0.67498
H          6.28731       -3.01999        0.23197
C         -2.38483       -0.12707       -0.08089
H         -1.32599       -0.33369       -0.02713
H         -2.98082       -0.18338        0.82505
H         -2.87850       -0.15992       -1.04773
I         -2.55120       -2.83568       -0.09928
